-1.199999999999999956e-01 0.000000000000000000e+00
-1.189999999999999947e-01 0.000000000000000000e+00
-1.179999999999999938e-01 0.000000000000000000e+00
-1.169999999999999929e-01 0.000000000000000000e+00
-1.159999999999999920e-01 0.000000000000000000e+00
-1.149999999999999911e-01 0.000000000000000000e+00
-1.139999999999999902e-01 0.000000000000000000e+00
-1.129999999999999893e-01 0.000000000000000000e+00
-1.119999999999999885e-01 0.000000000000000000e+00
-1.109999999999999876e-01 0.000000000000000000e+00
-1.099999999999999867e-01 0.000000000000000000e+00
-1.089999999999999858e-01 0.000000000000000000e+00
-1.079999999999999849e-01 0.000000000000000000e+00
-1.069999999999999840e-01 0.000000000000000000e+00
-1.059999999999999831e-01 0.000000000000000000e+00
-1.049999999999999822e-01 0.000000000000000000e+00
-1.039999999999999813e-01 0.000000000000000000e+00
-1.029999999999999805e-01 0.000000000000000000e+00
-1.019999999999999796e-01 0.000000000000000000e+00
-1.009999999999999787e-01 0.000000000000000000e+00
-9.999999999999997780e-02 0.000000000000000000e+00
-9.899999999999997691e-02 0.000000000000000000e+00
-9.799999999999997602e-02 0.000000000000000000e+00
-9.699999999999997513e-02 0.000000000000000000e+00
-9.599999999999997424e-02 0.000000000000000000e+00
-9.499999999999997335e-02 0.000000000000000000e+00
-9.399999999999997247e-02 0.000000000000000000e+00
-9.299999999999997158e-02 0.000000000000000000e+00
-9.199999999999997069e-02 0.000000000000000000e+00
-9.099999999999996980e-02 0.000000000000000000e+00
-8.999999999999996891e-02 0.000000000000000000e+00
-8.899999999999996803e-02 0.000000000000000000e+00
-8.799999999999996714e-02 0.000000000000000000e+00
-8.699999999999996625e-02 0.000000000000000000e+00
-8.599999999999996536e-02 0.000000000000000000e+00
-8.499999999999996447e-02 0.000000000000000000e+00
-8.399999999999996358e-02 0.000000000000000000e+00
-8.299999999999996270e-02 0.000000000000000000e+00
-8.199999999999996181e-02 0.000000000000000000e+00
-8.099999999999996092e-02 0.000000000000000000e+00
-7.999999999999996003e-02 0.000000000000000000e+00
-7.899999999999995914e-02 0.000000000000000000e+00
-7.799999999999995826e-02 0.000000000000000000e+00
-7.699999999999995737e-02 0.000000000000000000e+00
-7.599999999999995648e-02 0.000000000000000000e+00
-7.499999999999995559e-02 0.000000000000000000e+00
-7.399999999999995470e-02 0.000000000000000000e+00
-7.299999999999995381e-02 0.000000000000000000e+00
-7.199999999999995293e-02 0.000000000000000000e+00
-7.099999999999995204e-02 0.000000000000000000e+00
-6.999999999999995115e-02 0.000000000000000000e+00
-6.899999999999995026e-02 0.000000000000000000e+00
-6.799999999999994937e-02 0.000000000000000000e+00
-6.699999999999994849e-02 0.000000000000000000e+00
-6.599999999999994760e-02 0.000000000000000000e+00
-6.499999999999994671e-02 0.000000000000000000e+00
-6.399999999999994582e-02 0.000000000000000000e+00
-6.299999999999994493e-02 0.000000000000000000e+00
-6.199999999999994404e-02 0.000000000000000000e+00
-6.099999999999994316e-02 0.000000000000000000e+00
-5.999999999999994227e-02 0.000000000000000000e+00
-5.899999999999994138e-02 0.000000000000000000e+00
-5.799999999999994049e-02 0.000000000000000000e+00
-5.699999999999993960e-02 0.000000000000000000e+00
-5.599999999999993872e-02 0.000000000000000000e+00
-5.499999999999993783e-02 0.000000000000000000e+00
-5.399999999999993694e-02 0.000000000000000000e+00
-5.299999999999993605e-02 0.000000000000000000e+00
-5.199999999999993516e-02 0.000000000000000000e+00
-5.099999999999993427e-02 0.000000000000000000e+00
-4.999999999999993339e-02 0.000000000000000000e+00
-4.899999999999993250e-02 0.000000000000000000e+00
-4.799999999999993161e-02 0.000000000000000000e+00
-4.699999999999993072e-02 0.000000000000000000e+00
-4.599999999999992983e-02 0.000000000000000000e+00
-4.499999999999992895e-02 0.000000000000000000e+00
-4.399999999999992806e-02 0.000000000000000000e+00
-4.299999999999992717e-02 0.000000000000000000e+00
-4.199999999999992628e-02 0.000000000000000000e+00
-4.099999999999992539e-02 0.000000000000000000e+00
-3.999999999999992450e-02 0.000000000000000000e+00
-3.899999999999992362e-02 0.000000000000000000e+00
-3.799999999999992273e-02 0.000000000000000000e+00
-3.699999999999992184e-02 0.000000000000000000e+00
-3.599999999999992095e-02 0.000000000000000000e+00
-3.499999999999992006e-02 0.000000000000000000e+00
-3.399999999999991918e-02 0.000000000000000000e+00
-3.299999999999991829e-02 0.000000000000000000e+00
-3.199999999999991740e-02 0.000000000000000000e+00
-3.099999999999991651e-02 0.000000000000000000e+00
-2.999999999999991562e-02 0.000000000000000000e+00
-2.899999999999991473e-02 0.000000000000000000e+00
-2.799999999999991385e-02 0.000000000000000000e+00
-2.699999999999991296e-02 0.000000000000000000e+00
-2.599999999999991207e-02 0.000000000000000000e+00
-2.499999999999991118e-02 0.000000000000000000e+00
-2.399999999999991029e-02 0.000000000000000000e+00
-2.299999999999990941e-02 0.000000000000000000e+00
-2.199999999999990852e-02 0.000000000000000000e+00
-2.099999999999990763e-02 0.000000000000000000e+00
-1.999999999999990674e-02 0.000000000000000000e+00
-1.899999999999990585e-02 0.000000000000000000e+00
-1.799999999999990496e-02 0.000000000000000000e+00
-1.699999999999990408e-02 0.000000000000000000e+00
-1.599999999999990319e-02 0.000000000000000000e+00
-1.499999999999990230e-02 0.000000000000000000e+00
-1.399999999999990141e-02 0.000000000000000000e+00
-1.299999999999990052e-02 0.000000000000000000e+00
-1.199999999999989964e-02 0.000000000000000000e+00
-1.099999999999989875e-02 0.000000000000000000e+00
-9.999999999999897859e-03 0.000000000000000000e+00
-8.999999999999896971e-03 0.000000000000000000e+00
-7.999999999999896083e-03 0.000000000000000000e+00
-6.999999999999895195e-03 0.000000000000000000e+00
-5.999999999999894307e-03 0.000000000000000000e+00
-4.999999999999893419e-03 0.000000000000000000e+00
-3.999999999999892530e-03 0.000000000000000000e+00
-2.999999999999891642e-03 0.000000000000000000e+00
-1.999999999999890754e-03 0.000000000000000000e+00
-9.999999999998898659e-04 0.000000000000000000e+00
1.110223024625156540e-16 0.000000000000000000e+00
1.000000000000111910e-03 0.000000000000000000e+00
2.000000000000112799e-03 0.000000000000000000e+00
3.000000000000113687e-03 0.000000000000000000e+00
4.000000000000114575e-03 0.000000000000000000e+00
5.000000000000115463e-03 0.000000000000000000e+00
6.000000000000116351e-03 0.000000000000000000e+00
7.000000000000117240e-03 0.000000000000000000e+00
8.000000000000118128e-03 0.000000000000000000e+00
9.000000000000119016e-03 0.000000000000000000e+00
1.000000000000011990e-02 0.000000000000000000e+00
1.100000000000012079e-02 0.000000000000000000e+00
1.200000000000012168e-02 0.000000000000000000e+00
1.300000000000012257e-02 0.000000000000000000e+00
1.400000000000012346e-02 0.000000000000000000e+00
1.500000000000012434e-02 0.000000000000000000e+00
1.600000000000012523e-02 0.000000000000000000e+00
1.700000000000012612e-02 0.000000000000000000e+00
1.800000000000012701e-02 0.000000000000000000e+00
1.900000000000012790e-02 0.000000000000000000e+00
2.000000000000012879e-02 0.000000000000000000e+00
2.100000000000012967e-02 0.000000000000000000e+00
2.200000000000013056e-02 0.000000000000000000e+00
2.300000000000013145e-02 0.000000000000000000e+00
2.400000000000013234e-02 0.000000000000000000e+00
2.500000000000013323e-02 0.000000000000000000e+00
2.600000000000013411e-02 0.000000000000000000e+00
2.700000000000013500e-02 0.000000000000000000e+00
2.800000000000013589e-02 0.000000000000000000e+00
2.900000000000013678e-02 0.000000000000000000e+00
3.000000000000013767e-02 0.000000000000000000e+00
3.100000000000013856e-02 0.000000000000000000e+00
3.200000000000013944e-02 0.000000000000000000e+00
3.300000000000014033e-02 0.000000000000000000e+00
3.400000000000014122e-02 0.000000000000000000e+00
3.500000000000014211e-02 0.000000000000000000e+00
3.600000000000014300e-02 0.000000000000000000e+00
3.700000000000014388e-02 0.000000000000000000e+00
3.800000000000014477e-02 0.000000000000000000e+00
3.900000000000014566e-02 0.000000000000000000e+00
4.000000000000014655e-02 0.000000000000000000e+00
4.100000000000014744e-02 0.000000000000000000e+00
4.200000000000014833e-02 0.000000000000000000e+00
4.300000000000014921e-02 0.000000000000000000e+00
4.400000000000015010e-02 0.000000000000000000e+00
4.500000000000015099e-02 0.000000000000000000e+00
4.600000000000015188e-02 0.000000000000000000e+00
4.700000000000015277e-02 0.000000000000000000e+00
4.800000000000015365e-02 0.000000000000000000e+00
4.900000000000015454e-02 0.000000000000000000e+00
5.000000000000015543e-02 0.000000000000000000e+00
5.100000000000015632e-02 0.000000000000000000e+00
5.200000000000015721e-02 0.000000000000000000e+00
5.300000000000015810e-02 0.000000000000000000e+00
5.400000000000015898e-02 0.000000000000000000e+00
5.500000000000015987e-02 0.000000000000000000e+00
5.600000000000016076e-02 0.000000000000000000e+00
5.700000000000016165e-02 0.000000000000000000e+00
5.800000000000016254e-02 0.000000000000000000e+00
5.900000000000016342e-02 0.000000000000000000e+00
6.000000000000016431e-02 0.000000000000000000e+00
6.100000000000016520e-02 0.000000000000000000e+00
6.200000000000016609e-02 0.000000000000000000e+00
6.300000000000016698e-02 0.000000000000000000e+00
6.400000000000016787e-02 0.000000000000000000e+00
6.500000000000016875e-02 0.000000000000000000e+00
6.600000000000016964e-02 0.000000000000000000e+00
6.700000000000017053e-02 0.000000000000000000e+00
6.800000000000017142e-02 0.000000000000000000e+00
6.900000000000017231e-02 0.000000000000000000e+00
7.000000000000017319e-02 0.000000000000000000e+00
7.100000000000017408e-02 0.000000000000000000e+00
7.200000000000017497e-02 0.000000000000000000e+00
7.300000000000017586e-02 0.000000000000000000e+00
7.400000000000017675e-02 0.000000000000000000e+00
7.500000000000017764e-02 0.000000000000000000e+00
7.600000000000017852e-02 0.000000000000000000e+00
7.700000000000017941e-02 0.000000000000000000e+00
7.800000000000018030e-02 0.000000000000000000e+00
7.900000000000018119e-02 0.000000000000000000e+00
8.000000000000018208e-02 0.000000000000000000e+00
8.100000000000018296e-02 0.000000000000000000e+00
8.200000000000018385e-02 0.000000000000000000e+00
8.300000000000018474e-02 0.000000000000000000e+00
8.400000000000018563e-02 0.000000000000000000e+00
8.500000000000018652e-02 0.000000000000000000e+00
8.600000000000018741e-02 0.000000000000000000e+00
8.700000000000018829e-02 0.000000000000000000e+00
8.800000000000018918e-02 0.000000000000000000e+00
8.900000000000019007e-02 0.000000000000000000e+00
9.000000000000019096e-02 0.000000000000000000e+00
9.100000000000019185e-02 0.000000000000000000e+00
9.200000000000019273e-02 0.000000000000000000e+00
9.300000000000019362e-02 0.000000000000000000e+00
9.400000000000019451e-02 0.000000000000000000e+00
9.500000000000019540e-02 0.000000000000000000e+00
9.600000000000019629e-02 0.000000000000000000e+00
9.700000000000019718e-02 0.000000000000000000e+00
9.800000000000019806e-02 0.000000000000000000e+00
9.900000000000019895e-02 0.000000000000000000e+00
1.000000000000001998e-01 0.000000000000000000e+00
1.010000000000002007e-01 0.000000000000000000e+00
1.020000000000002016e-01 0.000000000000000000e+00
1.030000000000002025e-01 0.000000000000000000e+00
1.040000000000002034e-01 0.000000000000000000e+00
1.050000000000002043e-01 0.000000000000000000e+00
1.060000000000002052e-01 0.000000000000000000e+00
1.070000000000002061e-01 0.000000000000000000e+00
1.080000000000002069e-01 0.000000000000000000e+00
1.090000000000002078e-01 0.000000000000000000e+00
1.100000000000002087e-01 0.000000000000000000e+00
1.110000000000002096e-01 0.000000000000000000e+00
1.120000000000002105e-01 0.000000000000000000e+00
1.130000000000002114e-01 0.000000000000000000e+00
1.140000000000002123e-01 0.000000000000000000e+00
1.150000000000002132e-01 0.000000000000000000e+00
1.160000000000002141e-01 0.000000000000000000e+00
1.170000000000002149e-01 0.000000000000000000e+00
1.180000000000002158e-01 0.000000000000000000e+00
1.190000000000002167e-01 0.000000000000000000e+00
1.200000000000002176e-01 0.000000000000000000e+00
1.210000000000002185e-01 0.000000000000000000e+00
1.220000000000002194e-01 0.000000000000000000e+00
1.230000000000002203e-01 0.000000000000000000e+00
1.240000000000002212e-01 0.000000000000000000e+00
1.250000000000002220e-01 0.000000000000000000e+00
1.260000000000002229e-01 0.000000000000000000e+00
1.270000000000002238e-01 0.000000000000000000e+00
1.280000000000002247e-01 0.000000000000000000e+00
1.290000000000002256e-01 0.000000000000000000e+00
1.300000000000002265e-01 0.000000000000000000e+00
1.310000000000002274e-01 0.000000000000000000e+00
1.320000000000002283e-01 0.000000000000000000e+00
1.330000000000002292e-01 0.000000000000000000e+00
1.340000000000002300e-01 0.000000000000000000e+00
1.350000000000002309e-01 0.000000000000000000e+00
1.360000000000002318e-01 0.000000000000000000e+00
1.370000000000002327e-01 0.000000000000000000e+00
1.380000000000002336e-01 0.000000000000000000e+00
1.390000000000002345e-01 0.000000000000000000e+00
1.400000000000002354e-01 0.000000000000000000e+00
1.410000000000002363e-01 0.000000000000000000e+00
1.420000000000002371e-01 0.000000000000000000e+00
1.430000000000002380e-01 0.000000000000000000e+00
1.440000000000002389e-01 0.000000000000000000e+00
1.450000000000002398e-01 0.000000000000000000e+00
1.460000000000002407e-01 0.000000000000000000e+00
1.470000000000002416e-01 0.000000000000000000e+00
1.480000000000002425e-01 0.000000000000000000e+00
1.490000000000002434e-01 0.000000000000000000e+00
1.500000000000002442e-01 0.000000000000000000e+00
1.510000000000002451e-01 0.000000000000000000e+00
1.520000000000002460e-01 0.000000000000000000e+00
1.530000000000002469e-01 0.000000000000000000e+00
1.540000000000002478e-01 0.000000000000000000e+00
1.550000000000002487e-01 0.000000000000000000e+00
1.560000000000002496e-01 0.000000000000000000e+00
1.570000000000002505e-01 0.000000000000000000e+00
1.580000000000002514e-01 0.000000000000000000e+00
1.590000000000002522e-01 0.000000000000000000e+00
1.600000000000002531e-01 0.000000000000000000e+00
1.610000000000002540e-01 0.000000000000000000e+00
1.620000000000002549e-01 0.000000000000000000e+00
1.630000000000002558e-01 0.000000000000000000e+00
1.640000000000002567e-01 0.000000000000000000e+00
1.650000000000002576e-01 0.000000000000000000e+00
1.660000000000002585e-01 0.000000000000000000e+00
1.670000000000002593e-01 0.000000000000000000e+00
1.680000000000002602e-01 0.000000000000000000e+00
1.690000000000002611e-01 0.000000000000000000e+00
1.700000000000002620e-01 0.000000000000000000e+00
1.710000000000002629e-01 0.000000000000000000e+00
1.720000000000002638e-01 0.000000000000000000e+00
1.730000000000002647e-01 0.000000000000000000e+00
1.740000000000002656e-01 0.000000000000000000e+00
1.750000000000002665e-01 0.000000000000000000e+00
1.760000000000002673e-01 0.000000000000000000e+00
1.770000000000002682e-01 0.000000000000000000e+00
1.780000000000002691e-01 0.000000000000000000e+00
1.790000000000002700e-01 0.000000000000000000e+00
1.800000000000002709e-01 0.000000000000000000e+00
1.810000000000002718e-01 0.000000000000000000e+00
1.820000000000002727e-01 0.000000000000000000e+00
1.830000000000002736e-01 0.000000000000000000e+00
1.840000000000002744e-01 0.000000000000000000e+00
1.850000000000002753e-01 0.000000000000000000e+00
1.860000000000002762e-01 0.000000000000000000e+00
1.870000000000002771e-01 0.000000000000000000e+00
1.880000000000002780e-01 0.000000000000000000e+00
1.890000000000002789e-01 0.000000000000000000e+00
1.900000000000002798e-01 0.000000000000000000e+00
1.910000000000002807e-01 0.000000000000000000e+00
1.920000000000002816e-01 0.000000000000000000e+00
1.930000000000002824e-01 0.000000000000000000e+00
1.940000000000002833e-01 0.000000000000000000e+00
1.950000000000002842e-01 0.000000000000000000e+00
1.960000000000002851e-01 0.000000000000000000e+00
1.970000000000002860e-01 0.000000000000000000e+00
1.980000000000002869e-01 0.000000000000000000e+00
1.990000000000002878e-01 0.000000000000000000e+00
2.000000000000002887e-01 0.000000000000000000e+00
2.010000000000002895e-01 0.000000000000000000e+00
2.020000000000002904e-01 0.000000000000000000e+00
2.030000000000002913e-01 0.000000000000000000e+00
2.040000000000002922e-01 0.000000000000000000e+00
2.050000000000002931e-01 0.000000000000000000e+00
2.060000000000002940e-01 0.000000000000000000e+00
2.070000000000002949e-01 0.000000000000000000e+00
2.080000000000002958e-01 0.000000000000000000e+00
2.090000000000002967e-01 0.000000000000000000e+00
2.100000000000002975e-01 0.000000000000000000e+00
2.110000000000002984e-01 0.000000000000000000e+00
2.120000000000002993e-01 0.000000000000000000e+00
2.130000000000003002e-01 0.000000000000000000e+00
2.140000000000003011e-01 0.000000000000000000e+00
2.150000000000003020e-01 0.000000000000000000e+00
2.160000000000003029e-01 0.000000000000000000e+00
2.170000000000003038e-01 0.000000000000000000e+00
2.180000000000003046e-01 0.000000000000000000e+00
2.190000000000003055e-01 0.000000000000000000e+00
2.200000000000003064e-01 0.000000000000000000e+00
2.210000000000003073e-01 0.000000000000000000e+00
2.220000000000003082e-01 0.000000000000000000e+00
2.230000000000003091e-01 0.000000000000000000e+00
2.240000000000003100e-01 0.000000000000000000e+00
2.250000000000003109e-01 0.000000000000000000e+00
2.260000000000003118e-01 0.000000000000000000e+00
2.270000000000003126e-01 0.000000000000000000e+00
2.280000000000003135e-01 0.000000000000000000e+00
2.290000000000003144e-01 0.000000000000000000e+00
2.300000000000003153e-01 0.000000000000000000e+00
2.310000000000003162e-01 0.000000000000000000e+00
2.320000000000003171e-01 0.000000000000000000e+00
2.330000000000003180e-01 0.000000000000000000e+00
2.340000000000003189e-01 0.000000000000000000e+00
2.350000000000003197e-01 0.000000000000000000e+00
2.360000000000003206e-01 0.000000000000000000e+00
2.370000000000003215e-01 0.000000000000000000e+00
2.380000000000003224e-01 0.000000000000000000e+00
2.390000000000003233e-01 0.000000000000000000e+00
2.400000000000003242e-01 0.000000000000000000e+00
2.410000000000003251e-01 0.000000000000000000e+00
2.420000000000003260e-01 0.000000000000000000e+00
2.430000000000003268e-01 0.000000000000000000e+00
2.440000000000003277e-01 0.000000000000000000e+00
2.450000000000003286e-01 0.000000000000000000e+00
2.460000000000003295e-01 0.000000000000000000e+00
2.470000000000003304e-01 0.000000000000000000e+00
2.480000000000003313e-01 0.000000000000000000e+00
2.490000000000003322e-01 0.000000000000000000e+00
2.500000000000003331e-01 0.000000000000000000e+00
2.510000000000003340e-01 0.000000000000000000e+00
2.520000000000003348e-01 0.000000000000000000e+00
2.530000000000003357e-01 0.000000000000000000e+00
2.540000000000003366e-01 0.000000000000000000e+00
2.550000000000003375e-01 0.000000000000000000e+00
2.560000000000003384e-01 0.000000000000000000e+00
2.570000000000003393e-01 0.000000000000000000e+00
2.580000000000003402e-01 0.000000000000000000e+00
2.590000000000003411e-01 0.000000000000000000e+00
2.600000000000003419e-01 0.000000000000000000e+00
2.610000000000003428e-01 0.000000000000000000e+00
2.620000000000003437e-01 0.000000000000000000e+00
2.630000000000003446e-01 0.000000000000000000e+00
2.640000000000003455e-01 0.000000000000000000e+00
2.650000000000003464e-01 0.000000000000000000e+00
2.660000000000003473e-01 0.000000000000000000e+00
2.670000000000003482e-01 0.000000000000000000e+00
2.680000000000003491e-01 0.000000000000000000e+00
2.690000000000003499e-01 0.000000000000000000e+00
2.700000000000003508e-01 0.000000000000000000e+00
2.710000000000003517e-01 0.000000000000000000e+00
2.720000000000003526e-01 0.000000000000000000e+00
2.730000000000003535e-01 0.000000000000000000e+00
2.740000000000003544e-01 0.000000000000000000e+00
2.750000000000003553e-01 0.000000000000000000e+00
2.760000000000003562e-01 0.000000000000000000e+00
2.770000000000003570e-01 0.000000000000000000e+00
2.780000000000003579e-01 0.000000000000000000e+00
2.790000000000003588e-01 0.000000000000000000e+00
2.800000000000003597e-01 0.000000000000000000e+00
2.810000000000003606e-01 0.000000000000000000e+00
2.820000000000003615e-01 0.000000000000000000e+00
2.830000000000003624e-01 0.000000000000000000e+00
2.840000000000003633e-01 0.000000000000000000e+00
2.850000000000003642e-01 0.000000000000000000e+00
2.860000000000003650e-01 0.000000000000000000e+00
2.870000000000003659e-01 0.000000000000000000e+00
2.880000000000003668e-01 0.000000000000000000e+00
2.890000000000003677e-01 0.000000000000000000e+00
2.900000000000003686e-01 0.000000000000000000e+00
2.910000000000003695e-01 0.000000000000000000e+00
2.920000000000003704e-01 0.000000000000000000e+00
2.930000000000003713e-01 0.000000000000000000e+00
2.940000000000003721e-01 0.000000000000000000e+00
2.950000000000003730e-01 0.000000000000000000e+00
2.960000000000003739e-01 0.000000000000000000e+00
2.970000000000003748e-01 0.000000000000000000e+00
2.980000000000003757e-01 0.000000000000000000e+00
2.990000000000003766e-01 0.000000000000000000e+00
3.000000000000003775e-01 0.000000000000000000e+00
3.010000000000003784e-01 0.000000000000000000e+00
3.020000000000003793e-01 0.000000000000000000e+00
3.030000000000003801e-01 0.000000000000000000e+00
3.040000000000003810e-01 0.000000000000000000e+00
3.050000000000003819e-01 0.000000000000000000e+00
3.060000000000003828e-01 0.000000000000000000e+00
3.070000000000003837e-01 0.000000000000000000e+00
3.080000000000003846e-01 0.000000000000000000e+00
3.090000000000003855e-01 0.000000000000000000e+00
3.100000000000003864e-01 0.000000000000000000e+00
3.110000000000003872e-01 0.000000000000000000e+00
3.120000000000003881e-01 0.000000000000000000e+00
3.130000000000003890e-01 0.000000000000000000e+00
3.140000000000003899e-01 0.000000000000000000e+00
3.150000000000003908e-01 0.000000000000000000e+00
3.160000000000003917e-01 0.000000000000000000e+00
3.170000000000003926e-01 0.000000000000000000e+00
3.180000000000003935e-01 0.000000000000000000e+00
3.190000000000003944e-01 0.000000000000000000e+00
3.200000000000003952e-01 0.000000000000000000e+00
3.210000000000003961e-01 0.000000000000000000e+00
3.220000000000003970e-01 0.000000000000000000e+00
3.230000000000003979e-01 0.000000000000000000e+00
3.240000000000003988e-01 0.000000000000000000e+00
3.250000000000003997e-01 0.000000000000000000e+00
3.260000000000004006e-01 0.000000000000000000e+00
3.270000000000004015e-01 0.000000000000000000e+00
3.280000000000004023e-01 0.000000000000000000e+00
3.290000000000004032e-01 0.000000000000000000e+00
3.300000000000004041e-01 0.000000000000000000e+00
3.310000000000004050e-01 0.000000000000000000e+00
3.320000000000004059e-01 0.000000000000000000e+00
3.330000000000004068e-01 0.000000000000000000e+00
3.340000000000004077e-01 0.000000000000000000e+00
3.350000000000004086e-01 0.000000000000000000e+00
3.360000000000004095e-01 0.000000000000000000e+00
3.370000000000004103e-01 0.000000000000000000e+00
3.380000000000004112e-01 0.000000000000000000e+00
3.390000000000004121e-01 0.000000000000000000e+00
3.400000000000004130e-01 0.000000000000000000e+00
3.410000000000004139e-01 0.000000000000000000e+00
3.420000000000004148e-01 0.000000000000000000e+00
3.430000000000004157e-01 0.000000000000000000e+00
3.440000000000004166e-01 0.000000000000000000e+00
3.450000000000004174e-01 0.000000000000000000e+00
3.460000000000004183e-01 0.000000000000000000e+00
3.470000000000004192e-01 0.000000000000000000e+00
3.480000000000004201e-01 0.000000000000000000e+00
3.490000000000004210e-01 0.000000000000000000e+00
3.500000000000004219e-01 0.000000000000000000e+00
3.510000000000004228e-01 0.000000000000000000e+00
3.520000000000004237e-01 0.000000000000000000e+00
3.530000000000004245e-01 0.000000000000000000e+00
3.540000000000004254e-01 0.000000000000000000e+00
3.550000000000004263e-01 0.000000000000000000e+00
3.560000000000004272e-01 0.000000000000000000e+00
3.570000000000004281e-01 0.000000000000000000e+00
3.580000000000004290e-01 0.000000000000000000e+00
3.590000000000004299e-01 0.000000000000000000e+00
3.600000000000004308e-01 0.000000000000000000e+00
3.610000000000004317e-01 0.000000000000000000e+00
3.620000000000004325e-01 0.000000000000000000e+00
3.630000000000004334e-01 0.000000000000000000e+00
3.640000000000004343e-01 0.000000000000000000e+00
3.650000000000004352e-01 0.000000000000000000e+00
3.660000000000004361e-01 0.000000000000000000e+00
3.670000000000004370e-01 0.000000000000000000e+00
3.680000000000004379e-01 0.000000000000000000e+00
3.690000000000004388e-01 0.000000000000000000e+00
3.700000000000004396e-01 0.000000000000000000e+00
3.710000000000004405e-01 0.000000000000000000e+00
3.720000000000004414e-01 0.000000000000000000e+00
3.730000000000004423e-01 0.000000000000000000e+00
3.740000000000004432e-01 0.000000000000000000e+00
3.750000000000004441e-01 0.000000000000000000e+00
3.760000000000004450e-01 0.000000000000000000e+00
3.770000000000004459e-01 0.000000000000000000e+00
3.780000000000004468e-01 0.000000000000000000e+00
3.790000000000004476e-01 0.000000000000000000e+00
3.800000000000004485e-01 0.000000000000000000e+00
3.810000000000004494e-01 0.000000000000000000e+00
3.820000000000004503e-01 0.000000000000000000e+00
3.830000000000004512e-01 0.000000000000000000e+00
3.840000000000004521e-01 0.000000000000000000e+00
3.850000000000004530e-01 0.000000000000000000e+00
3.860000000000004539e-01 0.000000000000000000e+00
3.870000000000004547e-01 0.000000000000000000e+00
3.880000000000004556e-01 0.000000000000000000e+00
3.890000000000004565e-01 0.000000000000000000e+00
3.900000000000004574e-01 0.000000000000000000e+00
3.910000000000004583e-01 0.000000000000000000e+00
3.920000000000004592e-01 0.000000000000000000e+00
3.930000000000004601e-01 0.000000000000000000e+00
3.940000000000004610e-01 0.000000000000000000e+00
3.950000000000004619e-01 0.000000000000000000e+00
3.960000000000004627e-01 0.000000000000000000e+00
3.970000000000004636e-01 0.000000000000000000e+00
3.980000000000004645e-01 0.000000000000000000e+00
3.990000000000004654e-01 0.000000000000000000e+00
4.000000000000004663e-01 0.000000000000000000e+00
4.010000000000004672e-01 0.000000000000000000e+00
4.020000000000004681e-01 0.000000000000000000e+00
4.030000000000004690e-01 0.000000000000000000e+00
4.040000000000004698e-01 0.000000000000000000e+00
4.050000000000004707e-01 0.000000000000000000e+00
4.060000000000004716e-01 0.000000000000000000e+00
4.070000000000004725e-01 0.000000000000000000e+00
4.080000000000004734e-01 0.000000000000000000e+00
4.090000000000004743e-01 0.000000000000000000e+00
4.100000000000004752e-01 0.000000000000000000e+00
4.110000000000004761e-01 0.000000000000000000e+00
4.120000000000004770e-01 0.000000000000000000e+00
4.130000000000004778e-01 0.000000000000000000e+00
4.140000000000004787e-01 0.000000000000000000e+00
4.150000000000004796e-01 0.000000000000000000e+00
4.160000000000004805e-01 0.000000000000000000e+00
4.170000000000004814e-01 0.000000000000000000e+00
4.180000000000004823e-01 0.000000000000000000e+00
4.190000000000004832e-01 0.000000000000000000e+00
4.200000000000004841e-01 0.000000000000000000e+00
4.210000000000004849e-01 0.000000000000000000e+00
4.220000000000004858e-01 0.000000000000000000e+00
4.230000000000004867e-01 0.000000000000000000e+00
4.240000000000004876e-01 0.000000000000000000e+00
4.250000000000004885e-01 0.000000000000000000e+00
4.260000000000004894e-01 0.000000000000000000e+00
4.270000000000004903e-01 0.000000000000000000e+00
4.280000000000004912e-01 0.000000000000000000e+00
4.290000000000004921e-01 0.000000000000000000e+00
4.300000000000004929e-01 0.000000000000000000e+00
4.310000000000004938e-01 0.000000000000000000e+00
4.320000000000004947e-01 0.000000000000000000e+00
4.330000000000004956e-01 0.000000000000000000e+00
4.340000000000004965e-01 0.000000000000000000e+00
4.350000000000004974e-01 0.000000000000000000e+00
4.360000000000004983e-01 0.000000000000000000e+00
4.370000000000004992e-01 0.000000000000000000e+00
4.380000000000005000e-01 0.000000000000000000e+00
4.390000000000005009e-01 0.000000000000000000e+00
4.400000000000005018e-01 0.000000000000000000e+00
4.410000000000005027e-01 0.000000000000000000e+00
4.420000000000005036e-01 0.000000000000000000e+00
4.430000000000005045e-01 0.000000000000000000e+00
4.440000000000005054e-01 0.000000000000000000e+00
4.450000000000005063e-01 0.000000000000000000e+00
4.460000000000005071e-01 0.000000000000000000e+00
4.470000000000005080e-01 0.000000000000000000e+00
4.480000000000005089e-01 0.000000000000000000e+00
4.490000000000005098e-01 0.000000000000000000e+00
4.500000000000005107e-01 0.000000000000000000e+00
4.510000000000005116e-01 0.000000000000000000e+00
4.520000000000005125e-01 0.000000000000000000e+00
4.530000000000005134e-01 0.000000000000000000e+00
4.540000000000005143e-01 0.000000000000000000e+00
4.550000000000005151e-01 0.000000000000000000e+00
4.560000000000005160e-01 0.000000000000000000e+00
4.570000000000005169e-01 0.000000000000000000e+00
4.580000000000005178e-01 0.000000000000000000e+00
4.590000000000005187e-01 0.000000000000000000e+00
4.600000000000005196e-01 0.000000000000000000e+00
4.610000000000005205e-01 0.000000000000000000e+00
4.620000000000005214e-01 0.000000000000000000e+00
4.630000000000005222e-01 0.000000000000000000e+00
4.640000000000005231e-01 0.000000000000000000e+00
4.650000000000005240e-01 0.000000000000000000e+00
4.660000000000005249e-01 0.000000000000000000e+00
4.670000000000005258e-01 0.000000000000000000e+00
4.680000000000005267e-01 0.000000000000000000e+00
4.690000000000005276e-01 0.000000000000000000e+00
4.700000000000005285e-01 0.000000000000000000e+00
4.710000000000005294e-01 0.000000000000000000e+00
4.720000000000005302e-01 0.000000000000000000e+00
4.730000000000005311e-01 0.000000000000000000e+00
4.740000000000005320e-01 0.000000000000000000e+00
4.750000000000005329e-01 0.000000000000000000e+00
4.760000000000005338e-01 0.000000000000000000e+00